132
 energy: -208.899666295923 gnorm: 0.000940968608 xtb: 6.2.2 (655bc02)
H           6.61626510868535   -6.56571658450265   -2.61315258650570
C           7.05997329487723   -6.83205785276402   -1.65804019773945
C           7.18225844497965   -5.60173031825474   -0.79908881170989
O           6.84793010517341   -4.48804879166729   -1.17231894674851
H           8.03894880266219   -7.27504317286177   -1.82776684161831
H           6.42772448930349   -7.56793610051802   -1.16586222416322
H           7.91757844984161   -6.75203344444528    0.71427310036183
N           7.73779552727855   -5.80610364967942    0.41173836055977
C           7.74231483279807   -4.78867424101175    1.45094257361427
C           8.06216205036173   -3.40269286968383    0.88183198729586
O           7.36915705818450   -2.43925085914932    1.14575806074507
H           6.74014355177352   -4.71145753163561    1.89778344430691
C           8.75338116787917   -5.14699914210880    2.53516102422101
H           8.47642499898253   -6.08372644145783    3.01384536130008
H           8.76809777868415   -4.36841637267444    3.29308138537168
H           9.75397711710666   -5.24711671804776    2.12019514381235
H           9.73370774235247   -4.13262733432862   -0.04772240099187
N           9.18412268849186   -3.31215739705750    0.15187554550868
C           9.67871353926435   -2.02756391344047   -0.31356082625048
C           8.63053650089340   -1.27621118559068   -1.15011001508471
O           8.46042309381625   -0.07908523750202   -1.02167210082102
H           9.89464337699652   -1.39308695680722    0.55628108640676
C          10.93806213389946   -2.22051877349867   -1.14792989195494
H          11.72129875862451   -2.68877855526270   -0.55544528241559
H          11.29882967465739   -1.25457636867845   -1.49033800578579
H          10.72849990801673   -2.83804935796896   -2.01921085481305
H           8.01401524707786   -3.03097491230337   -1.98440161825515
N           8.01696833530264   -2.02452677916394   -2.07782660650872
C           7.00366392265471   -1.46290568452917   -2.95086986374020
C           5.78665553929142   -0.97759351083052   -2.15332432976833
O           5.25885378278733    0.09451124059379   -2.38731533079734
H           7.43012887198036   -0.58201907315822   -3.44516691097437
C           6.57336071313552   -2.50029936593089   -3.97895523342644
H           7.41608959726617   -2.78686240138696   -4.60382849281321
H           5.79399166442021   -2.08855117162618   -4.61409626616529
H           6.18576529349688   -3.38330977916895   -3.47539915805093
H           5.83151863686600   -2.70592746167988   -1.05887888068169
N           5.35860419622696   -1.82593764831319   -1.21359506017857
C           4.23700457768175   -1.49264728267267   -0.35603941577244
C           4.49546317596720   -0.15832215635361    0.36167869527659
O           3.64695731608111    0.71354767565480    0.41476671903604
H           3.34039189731354   -1.34980061015441   -0.97378627859415
C           4.01441809598601   -2.60252807704747    0.66091635248503
H           3.78769767649144   -3.53751221927390    0.15245351911950
H           3.18182974908037   -2.34780742448884    1.31090591293966
H           4.90855307617522   -2.73193915136875    1.26678461236062
H           6.35018888695127   -0.84035733455337    0.88649967630095
N           5.70309764624970   -0.06382047160992    0.92358067687085
C           6.11602649429462    1.10950119321421    1.66820318434720
C           6.05604470334885    2.35583482314616    0.77531847270737
O           5.52195338559370    3.38456605041608    1.15105602252917
H           5.41362707272499    1.28018345935007    2.49542604964335
C           7.52860201279383    0.90918716463544    2.19883517036426
H           7.56279125951227    0.03623437019915    2.84698864572407
H           7.83902085827077    1.78218250683430    2.76659490080323
H           8.21843064504534    0.76243825301743    1.37062667024113
H           7.12531993775230    1.35800295601704   -0.66091988463600
N           6.64426611521388    2.21410307056280   -0.41460905107255
C           6.68821333668789    3.30166440817586   -1.37236556897099
C           5.26931949962020    3.80426272983333   -1.67832040045876
O           5.00157320108286    4.99331367765830   -1.69263053226528
H           7.23725752933240    4.14837522518815   -0.93794215523403
C           7.36273882859575    2.82648696161878   -2.65143387093324
H           8.36765502642596    2.47268170365768   -2.43167870932165
H           7.42206064162296    3.64251912646963   -3.36644356244409
H           6.78874283008575    2.01268535023891   -3.08873512709847
H           4.68052808543920    1.86493648013442   -1.95324264779755
N           4.39335561949374    2.83578098309730   -1.95177683240140
C           3.01456417310919    3.11781900200986   -2.29706515021208
C           2.32502815076827    3.89758641902411   -1.16884668723088
O           1.65335391118735    4.88938870974030   -1.39330438804100
H           2.98778443111171    3.76020608488853   -3.18785602463923
C           2.27892089017745    1.81036544547261   -2.55559806110852
H           2.75928429477330    1.26700105378460   -3.36623848621573
H           1.24552063737589    2.01102932064854   -2.82520925690975
H           2.29978039729124    1.19483893383904   -1.65918599173944
H           3.04921002820402    2.53243679056084    0.17453117103368
N           2.50976098800538    3.38003279618434    0.04719718959811
C           1.92236874636877    3.98016294751643    1.22771665483798
C           2.36186701715091    5.44623591719897    1.35788541170601
O           1.56802797884021    6.33534531900353    1.60815254396217
H           0.82819167013412    3.98561524003669    1.12806730031788
C           2.34469821022824    3.19295508161159    2.46016754789907
H           2.02303678503405    2.15786297475723    2.36760446834308
H           1.89834282876185    3.62668784675507    3.35097780946925
H           3.42779082000325    3.21745501386679    2.55569612977851
H           4.29294278511729    4.85667423619680    1.02032850550243
N           3.67387692126923    5.63756764140919    1.19974729344627
C           4.27255592948249    6.95219630183276    1.30494521783104
C           3.64034122736746    7.91889377264212    0.29087491776581
O           3.29557280807840    9.04347685792106    0.60825085018717
H           4.06841948432307    7.36543735846930    2.30247391823455
C           5.77205961711712    6.84487595304704    1.06530264521147
H           6.21725610572735    6.17057737418729    1.79388446368229
H           6.23544226957931    7.82371522430612    1.15537986269579
H           5.95465503304698    6.45340554920037    0.06717741624217
H           3.87558784562560    6.49367220748705   -1.15713546350459
N           3.53294185924245    7.42264300585193   -0.94364361982122
C           2.98620883506481    8.19583181201433   -2.03954788793477
C           1.54152410900848    8.65034451030400   -1.75016979464123
O           1.15340185025413    9.76130132447116   -2.05127125633321
H           3.57913983295403    9.11127812786001   -2.17082356304372
C           3.01316870079226    7.35232308350360   -3.30697884964357
H           4.03254754477976    7.04111000273701   -3.52671747688497
H           2.62507530076289    7.92585090625627   -4.14437833984327
H           2.39783205088756    6.46683765716815   -3.16431267476207
H           1.16483096944297    6.77794802324734   -1.02665836379900
N           0.78375453730902    7.70216858742968   -1.18536072598670
C          -0.61440782251688    7.89634556898184   -0.86536624382882
C          -0.82607169013697    8.91610206170983    0.27143110074373
O          -1.81087975152377    9.62495576803710    0.31117210880867
H          -1.13291117959196    8.30189903942869   -1.74374644770001
C          -1.21628907288615    6.56009318691789   -0.44862942299973
H          -1.09444614611345    5.82760002136544   -1.24402825457751
H          -2.27343712584572    6.68134678816859   -0.22857857048842
H          -0.70500339854028    6.20093121757873    0.44206188393073
H           0.87041628035099    8.19973729207123    1.15244811227031
N           0.13680211187382    8.89426950638614    1.20288611394121
C           0.15743534126895    9.79038751799327    2.33702074192071
C           0.55671786351246   11.22483732397664    1.93968638680002
O           0.14566724085142   12.19312104471733    2.55317879037034
H          -0.85227885350513    9.85248765486892    2.76172838401459
C           1.15246142018309    9.26762507664232    3.36629076792787
H           0.88848878505874    8.25479202937102    3.66295244667464
H           1.15759766787264    9.91229443885298    4.24111019172364
H           2.14700938130522    9.25648045860738    2.92498853572669
H           1.76587152016342   10.42826460519232    0.50569282647753
N           1.41425366657358   11.28209994793911    0.91670882916441
C           1.87732144680026   12.51496912542369    0.33947295477416
H           2.96619452518579   12.57613285406768    0.40089986256656
H           1.43073856988130   13.33698132599470    0.89705892881784
H           1.57536646711499   12.57039400776398   -0.70810086159887
