ITEM: TIMESTEP
2132000
ITEM: NUMBER OF ATOMS
4059
ITEM: BOX BOUNDS pp pp pp
0.0000000000000000e+00 8.0000000000000000e+01
0.0000000000000000e+00 8.0000000000000000e+01
0.0000000000000000e+00 8.0000000000000000e+01
ITEM: ATOMS id mol type element q xu yu zu
1 1 1 C2H -0.12 6.37165 55.0913 -48.0085
2 1 2 C2H_T -0.12 6.81936 54.0146 -49.0159
3 1 1 C2H -0.12 7.28522 56.3245 -47.9876
4 1 2 C2H_T -0.12 5.71409 52.9279 -49.0744
5 1 3 CTN 0.08 6.80293 57.4882 -48.8512
6 1 4 CTN_T 0.08 5.96769 51.7779 -50.0376
7 1 1 C2H -0.12 7.64885 61.5782 -46.3299
8 1 1 C2H -0.12 6.72374 60.7583 -45.3162
9 1 1 C2H -0.12 8.20871 60.7398 -47.4966
10 1 1 C2H -0.12 7.36111 59.5438 -44.6727
11 1 5 CO 0.5 7.1338 59.7681 -48.1395
12 1 6 CO_T 0.5 6.31333 58.4548 -44.4442
13 1 7 H 0.06 5.29963 55.2608 -48.1092
14 1 7 H 0.06 6.45328 54.6492 -47.0156
15 1 8 H_T 0.06 7.79994 53.5776 -48.8273
16 1 8 H_T 0.06 6.90795 54.4657 -50.0042
17 1 7 H 0.06 8.31738 56.1176 -48.2703
18 1 7 H 0.06 7.31775 56.7039 -46.9662
19 1 8 H_T 0.06 4.9935 53.5431 -49.6133
20 1 8 H_T 0.06 5.43193 52.4966 -48.1139
21 1 9 H2CN 0.06 6.99913 57.2842 -49.9039
22 1 9 H2CN 0.06 5.72346 57.5606 -48.7186
23 1 10 H2CN_T 0.06 6.35356 52.256 -50.938
24 1 10 H2CN_T 0.06 6.64654 51.0257 -49.6358
25 1 7 H 0.06 8.46039 62.1462 -45.8751
26 1 7 H 0.06 7.08581 62.3168 -46.9006
27 1 7 H 0.06 6.45387 61.4998 -44.5642
28 1 7 H 0.06 5.78773 60.5177 -45.8203
29 1 7 H 0.06 8.59565 61.4559 -48.2215
30 1 7 H 0.06 9.09097 60.2184 -47.1252
31 1 7 H 0.06 7.80709 59.9678 -43.773
32 1 7 H 0.06 8.07709 59.095 -45.3612
33 1 11 HN 0.3 8.57695 58.6967 -49.0279
34 1 12 HN_T1 0.3 4.44272 50.2827 -49.6109
35 1 13 NCO -0.5 7.66143 58.6704 -48.6022
36 1 14 NCO_T -0.5 4.77636 50.8183 -50.3995
37 1 15 OC -0.5 5.91252 60.0136 -48.2954
38 1 16 OC_T -0.5 6.6478 57.562 -43.6808
39 1 17 Q 0 5.00544 58.6008 -44.5964
40 1 18 X 0 4.07689 50.8898 -51.1245
41 1 19 Z 0 4.65364 57.7803 -44.9064
42 2 1 C2H -0.12 -2.34625 51.4268 101.689
43 2 2 C2H_T -0.12 -1.1258 51.132 100.91
44 2 1 C2H -0.12 -2.39458 50.6716 103.014
45 2 2 C2H_T -0.12 -0.853691 51.9828 99.6807
46 2 3 CTN 0.08 -3.56895 49.6859 103.005
47 2 4 CTN_T 0.08 0.428523 51.8819 98.8151
48 2 1 C2H -0.12 -2.22966 44.9544 102.105
49 2 1 C2H -0.12 -3.18623 44.0258 102.946
50 2 1 C2H -0.12 -2.87115 46.2627 101.68
51 2 1 C2H -0.12 -3.10266 42.5811 102.441
52 2 5 CO 0.5 -2.72266 47.4928 102.62
53 2 6 CO_T 0.5 -1.72082 41.8784 102.647
54 2 7 H 0.06 -2.25254 52.4709 101.987
55 2 7 H 0.06 -3.27515 51.3301 101.127
56 2 8 H_T 0.06 -1.05925 50.0909 100.595
57 2 8 H_T 0.06 -0.265077 51.3328 101.548
58 2 7 H 0.06 -2.63882 51.4317 103.756
59 2 7 H 0.06 -1.45846 50.292 103.423
60 2 8 H_T 0.06 -1.07924 53.0447 99.7786
61 2 8 H_T 0.06 -1.60734 51.7736 98.9215
62 2 9 H2CN 0.06 -3.86065 49.3823 104.01
63 2 9 H2CN 0.06 -4.39843 50.28 102.621
64 2 10 H2CN_T 0.06 0.800137 50.9175 98.4688
65 2 10 H2CN_T 0.06 0.198783 52.4596 97.9198
66 2 7 H 0.06 -1.9996 44.427 101.18
67 2 7 H 0.06 -1.36858 45.2153 102.721
68 2 7 H 0.06 -2.74973 44.0343 103.945
69 2 7 H 0.06 -4.19423 44.4389 102.983
70 2 7 H 0.06 -2.19078 46.5434 100.876
71 2 7 H 0.06 -3.86464 46.0399 101.291
72 2 7 H 0.06 -3.36546 42.5587 101.384
73 2 7 H 0.06 -3.86832 42.0173 102.974
74 2 11 HN 0.3 -3.36028 48.6421 101.102
75 2 12 HN_T1 0.3 1.40157 53.6869 99.304
76 2 13 NCO -0.5 -3.28496 48.57 102.107
77 2 14 NCO_T -0.5 1.55562 52.6988 99.4455
78 2 15 OC -0.5 -2.36439 47.3945 103.781
79 2 16 OC_T -0.5 -1.28765 41.3334 101.621
80 2 17 Q 0 -1.17706 41.7723 103.847
81 2 18 X 0 1.96215 52.3098 100.284
82 2 19 Z 0 -1.76965 41.2258 104.34
83 3 1 C2H -0.12 10.104 39.4486 -46.0568
84 3 2 C2H_T -0.12 9.58953 39.7325 -47.4874
85 3 1 C2H -0.12 9.19077 38.518 -45.2408
86 3 2 C2H_T -0.12 8.34027 40.6927 -47.5751
87 3 3 CTN 0.08 9.88903 37.8658 -44.0588
88 3 4 CTN_T 0.08 7.84425 41.0022 -49.0843
89 3 1 C2H -0.12 7.85401 40.7956 -40.8822
90 3 1 C2H -0.12 6.70028 40.4282 -39.8845
91 3 1 C2H -0.12 8.9866 39.805 -40.9712
92 3 1 C2H -0.12 5.90039 41.7489 -39.5718
93 3 5 CO 0.5 8.89722 38.8854 -42.1342
94 3 6 CO_T 0.5 4.76941 42.0638 -40.668
95 3 7 H 0.06 11.0963 38.9976 -46.0632
96 3 7 H 0.06 10.1714 40.3651 -45.4705
97 3 8 H_T 0.06 9.2975 38.7719 -47.9117
98 3 8 H_T 0.06 10.3889 40.1826 -48.0762
99 3 7 H 0.06 9.01329 37.7714 -46.0148
100 3 7 H 0.06 8.26357 38.9451 -44.8587
101 3 8 H_T 0.06 8.39892 41.6615 -47.0791
102 3 8 H_T 0.06 7.59796 40.2615 -46.9035
103 3 9 H2CN 0.06 9.2274 37.0347 -43.8146
104 3 9 H2CN 0.06 10.8871 37.6451 -44.4373
105 3 10 H2CN_T 0.06 8.71313 41.013 -49.7423
106 3 10 H2CN_T 0.06 7.22316 40.2068 -49.4961
107 3 7 H 0.06 8.44359 41.6547 -40.5621
108 3 7 H 0.06 7.62143 41.1301 -41.8932
109 3 7 H 0.06 6.08598 39.6182 -40.2778
110 3 7 H 0.06 7.19394 40.2157 -38.9363
111 3 7 H 0.06 10.0047 40.1936 -40.9959
112 3 7 H 0.06 8.88187 39.2787 -40.0224
113 3 7 H 0.06 6.51815 42.6239 -39.3696
114 3 7 H 0.06 5.39413 41.4885 -38.6423
115 3 11 HN 0.3 10.5763 39.5753 -43.1016
116 3 12 HN_T1 0.3 6.21481 42.232 -49.1843
117 3 13 NCO -0.5 9.94881 38.7916 -42.9912
118 3 14 NCO_T -0.5 7.21196 42.336 -49.0619
119 3 15 OC -0.5 7.86754 38.2507 -42.2968
120 3 16 OC_T -0.5 4.19196 43.1813 -40.5091
121 3 17 Q 0 4.66895 41.2865 -41.8196
122 3 18 X 0 7.65463 43.0114 -48.4553
123 3 19 Z 0 4.52286 41.7701 -42.6182
124 4 1 C2H -0.12 67.286 105.626 94.3583
125 4 2 C2H_T -0.12 66.6358 105.612 92.9909
126 4 1 C2H -0.12 66.9761 106.77 95.2233
127 4 2 C2H_T -0.12 66.6505 104.164 92.4504
128 4 3 CTN 0.08 67.4524 106.435 96.6214
129 4 4 CTN_T 0.08 65.9172 103.877 91.0668
130 4 1 C2H -0.12 64.81 109.562 99.6971
131 4 1 C2H -0.12 64.3698 108.214 100.193
132 4 1 C2H -0.12 66.1752 109.386 98.8933
133 4 1 C2H -0.12 63.694 108.172 101.611
134 4 5 CO 0.5 66.15 108.33 97.758
135 4 6 CO_T 0.5 64.7776 108.191 102.729
136 4 7 H 0.06 66.912 104.808 94.9736
137 4 7 H 0.06 68.347 105.452 94.1783
138 4 8 H_T 0.06 67.165 106.354 92.3939
139 4 8 H_T 0.06 65.5881 105.912 92.9812
140 4 7 H 0.06 65.8926 106.879 95.2722
141 4 7 H 0.06 67.473 107.638 94.7892
142 4 8 H_T 0.06 66.0757 103.58 93.1692
143 4 8 H_T 0.06 67.6654 103.767 92.4636
144 4 9 H2CN 0.06 66.8438 105.629 97.0316
145 4 9 H2CN 0.06 68.4832 106.095 96.5241
146 4 10 H2CN_T 0.06 66.2535 104.417 90.1817
147 4 10 H2CN_T 0.06 66.1226 102.831 90.8403
148 4 7 H 0.06 65.0361 110.258 100.505
149 4 7 H 0.06 64.0239 110.051 99.1219
150 4 7 H 0.06 63.6178 107.982 99.4395
151 4 7 H 0.06 65.1086 107.414 100.237
152 4 7 H 0.06 66.6872 110.293 98.5711
153 4 7 H 0.06 66.9186 108.955 99.564
154 4 7 H 0.06 63.1201 107.247 101.666
155 4 7 H 0.06 62.9596 108.964 101.756
156 4 11 HN 0.3 68.1495 107.997 97.7812
157 4 12 HN_T1 0.3 64 104.771 91.6363
158 4 13 NCO -0.5 67.275 107.624 97.4406
159 4 14 NCO_T -0.5 64.4815 104.08 91.0782
160 4 15 OC -0.5 65.1 108.035 97.122
161 4 16 OC_T -0.5 65.8137 107.552 102.528
162 4 17 Q 0 64.7944 109.219 103.604
163 4 18 X 0 63.8753 103.518 90.4985
164 4 19 Z 0 64.8173 110.091 103.24
165 5 1 C2H -0.12 87.3233 -30.5929 18.5741
166 5 2 C2H_T -0.12 88.7255 -30.3212 19.2011
167 5 1 C2H -0.12 86.1555 -29.5522 18.7624
168 5 2 C2H_T -0.12 89.75 -31.2886 18.634
169 5 3 CTN 0.08 84.7842 -30.1771 18.3818
170 5 4 CTN_T 0.08 91.1762 -31.0301 19.2704
171 5 1 C2H -0.12 84.9545 -32.4463 14.4376
172 5 1 C2H -0.12 85.254 -33.3546 13.2859
173 5 1 C2H -0.12 85.5187 -32.7781 15.8448
174 5 1 C2H -0.12 85.9952 -32.6988 12.0451
175 5 5 CO 0.5 84.7229 -32.2441 16.9908
176 5 6 CO_T 0.5 87.4674 -32.1439 12.4332
177 5 7 H 0.06 87.3739 -30.8279 17.511
178 5 7 H 0.06 87.0183 -31.4845 19.122
179 5 8 H_T 0.06 88.662 -30.2397 20.2862
180 5 8 H_T 0.06 89.041 -29.3518 18.8154
181 5 7 H 0.06 86.3573 -28.6898 18.1272
182 5 7 H 0.06 86.261 -29.1645 19.7757
183 5 8 H_T 0.06 89.824 -31.1412 17.5566
184 5 8 H_T 0.06 89.4749 -32.3368 18.7508
185 5 9 H2CN 0.06 84.3906 -30.6534 19.2797
186 5 9 H2CN 0.06 83.997 -29.4239 18.3475
187 5 10 H2CN_T 0.06 91.1236 -30.7657 20.3266
188 5 10 H2CN_T 0.06 91.8209 -31.9038 19.1758
189 5 7 H 0.06 83.8677 -32.3628 14.4357
190 5 7 H 0.06 85.1863 -31.4079 14.2005
191 5 7 H 0.06 85.757 -34.2498 13.6518
192 5 7 H 0.06 84.2892 -33.7786 13.0078
193 5 7 H 0.06 85.4601 -33.8664 15.855
194 5 7 H 0.06 86.5743 -32.5455 15.985
195 5 7 H 0.06 85.3015 -31.8653 11.9347
196 5 7 H 0.06 85.9829 -33.2562 11.1086
197 5 11 HN 0.3 85.3584 -30.3659 16.4325
198 5 12 HN_T1 0.3 91.0789 -29.1548 18.2908
199 5 13 NCO -0.5 84.8326 -30.8953 17.1133
200 5 14 NCO_T -0.5 91.7922 -29.7594 18.6728
201 5 15 OC -0.5 84.0546 -32.9263 17.7661
202 5 16 OC_T -0.5 87.7838 -30.9391 12.1816
203 5 17 Q 0 88.4331 -33.0848 12.6899
204 5 18 X 0 92.554 -29.8854 18.0218
205 5 19 Z 0 88.1478 -33.9825 12.6134
206 6 1 C2H -0.12 70.817 20.3895 31.6319
207 6 2 C2H_T -0.12 69.6922 21.4597 31.6919
208 6 1 C2H -0.12 72.2372 20.9587 31.4158
209 6 2 C2H_T -0.12 69.2238 21.8467 30.2367
210 6 3 CTN 0.08 73.3661 19.985 31.6179
211 6 4 CTN_T 0.08 68.25 22.979 29.9946
212 6 1 C2H -0.12 77.1836 22.2958 29.7304
213 6 1 C2H -0.12 76.4109 23.1992 28.7402
214 6 1 C2H -0.12 76.4097 22.0491 31.0283
215 6 1 C2H -0.12 76.7951 22.7911 27.2621
216 6 5 CO 0.5 75.3856 21.0076 30.8338
217 6 6 CO_T 0.5 76.0771 21.6681 26.5805
218 6 7 H 0.06 70.8834 19.9918 32.6446
219 6 7 H 0.06 70.5868 19.6475 30.8674
220 6 8 H_T 0.06 70.0149 22.4482 32.0188
221 6 8 H_T 0.06 68.8841 21.1714 32.3642
222 6 7 H 0.06 72.4067 21.7921 32.0977
223 6 7 H 0.06 72.3615 21.5131 30.4856
224 6 8 H_T 0.06 68.8794 20.8892 29.8459
225 6 8 H_T 0.06 70.1438 22.1697 29.7493
226 6 9 H2CN 0.06 73.1861 19.3503 32.4856
227 6 9 H2CN 0.06 73.4655 19.3288 30.7532
228 6 10 H2CN_T 0.06 67.8326 22.8981 28.9909
229 6 10 H2CN_T 0.06 67.4124 22.9916 30.6919
230 6 7 H 0.06 78.0994 22.8325 29.9779
231 6 7 H 0.06 77.4851 21.4011 29.1857
232 6 7 H 0.06 75.3429 23.2255 28.9567
233 6 7 H 0.06 76.7231 24.2171 28.9737
234 6 7 H 0.06 77.1429 21.897 31.8203
235 6 7 H 0.06 75.9414 22.9921 31.3104
236 6 7 H 0.06 77.8369 22.4855 27.1652
237 6 7 H 0.06 76.522 23.6082 26.5944
238 6 11 HN 0.3 74.7473 21.0593 32.7781
239 6 12 HN_T1 0.3 69.7392 24.358 29.9097
240 6 13 NCO -0.5 74.5344 20.7656 31.8355
241 6 14 NCO_T -0.5 68.7826 24.3417 30.2332
242 6 15 OC -0.5 75.3554 20.3956 29.7894
243 6 16 OC_T -0.5 75.8349 21.8193 25.419
244 6 17 Q 0 76.5966 20.3549 26.7505
245 6 18 X 0 68.6605 24.7324 31.1565
246 6 19 Z 0 76.8106 20.3259 27.6704
247 7 1 C2H -0.12 103.252 47.5982 24.6654
248 7 2 C2H_T -0.12 103.942 48.8709 24.9861
249 7 1 C2H -0.12 103.943 46.4093 25.3576
250 7 2 C2H_T -0.12 103.446 49.6367 26.2314
251 7 3 CTN 0.08 103.275 45.1853 24.8873
252 7 4 CTN_T 0.08 104.147 50.9735 26.508
253 7 1 C2H -0.12 98.2407 45.1858 24.0576
254 7 1 C2H -0.12 98.0986 46.4827 23.1607
255 7 1 C2H -0.12 99.5234 45.2009 24.9135
256 7 1 C2H -0.12 97.8488 47.7597 24.0106
257 7 5 CO 0.5 100.904 45.0948 24.2562
258 7 6 CO_T 0.5 97.3642 49.0058 23.2077
259 7 7 H 0.06 102.169 47.5861 24.7877
260 7 7 H 0.06 103.321 47.4092 23.5941
261 7 8 H_T 0.06 103.638 49.5879 24.2232
262 7 8 H_T 0.06 105.014 48.6925 24.9055
263 7 7 H 0.06 103.908 46.4499 26.4463
264 7 7 H 0.06 105.014 46.4683 25.1642
265 7 8 H_T 0.06 103.553 49.047 27.1418
266 7 8 H_T 0.06 102.39 49.8994 26.3004
267 7 9 H2CN 0.06 103.472 44.898 23.8545
268 7 9 H2CN 0.06 103.573 44.3496 25.5205
269 7 10 H2CN_T 0.06 105.177 51.0061 26.8633
270 7 10 H2CN_T 0.06 104.077 51.743 25.7391
271 7 7 H 0.06 98.2554 44.2495 23.4996
272 7 7 H 0.06 97.3921 45.2005 24.7416
273 7 7 H 0.06 98.8614 46.6173 22.3939
274 7 7 H 0.06 97.1202 46.3002 22.7163
275 7 7 H 0.06 99.4792 46.1835 25.3832
276 7 7 H 0.06 99.5256 44.4512 25.7047
277 7 7 H 0.06 98.693 48.1244 24.5957
278 7 7 H 0.06 96.9565 47.6763 24.631
279 7 11 HN 0.3 101.494 45.4721 26.0443
280 7 12 HN_T1 0.3 102.848 52.4365 27.3398
281 7 13 NCO -0.5 101.863 45.2317 25.1353
282 7 14 NCO_T -0.5 103.508 51.7305 27.6329
283 7 15 OC -0.5 101.029 45.0572 23.0133
284 7 16 OC_T -0.5 97.8053 50.0921 23.5188
285 7 17 Q 0 96.3235 48.9871 22.3559
286 7 18 X 0 103.372 51.512 28.6095
287 7 19 Z 0 96.3877 48.4004 21.6179
288 8 1 C2H -0.12 106.239 51.9997 34.26
289 8 2 C2H_T -0.12 107.634 52.4623 33.8257
290 8 1 C2H -0.12 105.389 51.7315 33.0681
291 8 2 C2H_T -0.12 108.493 53.1673 34.9453
292 8 3 CTN 0.08 104.066 51.2003 33.5747
293 8 4 CTN_T 0.08 110.015 53.0357 34.6906
294 8 1 C2H -0.12 99.5033 50.776 31.8213
295 8 1 C2H -0.12 99.187 52.2545 32.135
296 8 1 C2H -0.12 100.967 50.4545 31.4525
297 8 1 C2H -0.12 97.736 52.2317 32.6322
298 8 5 CO 0.5 101.937 50.6781 32.5878
299 8 6 CO_T 0.5 97.2992 53.6601 33.1943
300 8 7 H 0.06 106.324 51.2689 35.0643
301 8 7 H 0.06 105.771 52.8245 34.7977
302 8 8 H_T 0.06 107.6 53.2981 33.1269
303 8 8 H_T 0.06 108.162 51.6093 33.3989
304 8 7 H 0.06 105.771 51.0139 32.3417
305 8 7 H 0.06 105.236 52.6454 32.4943
306 8 8 H_T 0.06 108.325 52.5595 35.8344
307 8 8 H_T 0.06 108.266 54.2244 35.0835
308 8 9 H2CN 0.06 104.148 50.3117 34.2004
309 8 9 H2CN 0.06 103.484 51.9182 34.1526
310 8 10 H2CN_T 0.06 110.511 53.4009 35.5899
311 8 10 H2CN_T 0.06 110.237 51.9697 34.6432
312 8 7 H 0.06 98.9954 50.3893 30.9378
313 8 7 H 0.06 99.2649 50.1779 32.7008
314 8 7 H 0.06 99.771 52.8538 32.8336
315 8 7 H 0.06 99.4146 52.8432 31.2464
316 8 7 H 0.06 101.151 49.4606 31.0449
317 8 7 H 0.06 101.25 51.1636 30.6746
318 8 7 H 0.06 97.7536 51.6117 33.5285
319 8 7 H 0.06 96.9839 51.9285 31.9037
320 8 11 HN 0.3 103.342 51.1271 31.5055
321 8 12 HN_T1 0.3 110.221 53.7698 32.6128
322 8 13 NCO -0.5 103.13 51.1044 32.4928
323 8 14 NCO_T -0.5 110.4 53.9471 33.5908
324 8 15 OC -0.5 101.507 50.5901 33.7101
325 8 16 OC_T -0.5 97.5533 54.5359 32.3847
326 8 17 Q 0 96.3301 53.6653 34.0778
327 8 18 X 0 110.63 54.8804 33.9005
328 8 19 Z 0 96.4656 54.2027 34.8433
329 9 1 C2H -0.12 96.8282 60.3385 31.3558
330 9 2 C2H_T -0.12 95.5081 60.3642 31.9871
331 9 1 C2H -0.12 97.6829 59.186 31.9099
332 9 2 C2H_T -0.12 94.4137 61.2527 31.2842
333 9 3 CTN 0.08 97.6262 57.9387 31.066
334 9 4 CTN_T 0.08 93.0443 61.3852 31.9783
335 9 1 C2H -0.12 102.074 55.432 30.9802
336 9 1 C2H -0.12 102.003 54.0945 30.243
337 9 1 C2H -0.12 100.765 55.7282 31.675
338 9 1 C2H -0.12 103.35 53.6222 29.6395
339 9 5 CO 0.5 99.8838 56.812 31.0197
340 9 6 CO_T 0.5 103.446 52.1463 28.9719
341 9 7 H 0.06 96.853 60.3168 30.2663
342 9 7 H 0.06 97.3594 61.2892 31.3114
343 9 8 H_T 0.06 95.6565 60.6764 33.0209
344 9 8 H_T 0.06 95.1145 59.3494 31.9294
345 9 7 H 0.06 97.4513 58.9853 32.9559
346 9 7 H 0.06 98.7187 59.5053 32.0248
347 9 8 H_T 0.06 94.166 60.7838 30.3319
348 9 8 H_T 0.06 94.8638 62.2413 31.1939
349 9 9 H2CN 0.06 96.6173 57.5313 31.1326
350 9 9 H2CN 0.06 97.934 58.3056 30.0869
351 9 10 H2CN_T 0.06 93.2286 61.9925 32.8645
352 9 10 H2CN_T 0.06 92.3177 62.0176 31.4683
353 9 7 H 0.06 102.361 56.2087 30.2716
354 9 7 H 0.06 102.769 55.3822 31.8183
355 9 7 H 0.06 101.746 53.3446 30.9913
356 9 7 H 0.06 101.203 54.0376 29.5042
357 9 7 H 0.06 100.267 54.8584 32.104
358 9 7 H 0.06 100.989 56.1779 32.6422
359 9 7 H 0.06 104.138 53.6827 30.3907
360 9 7 H 0.06 103.69 54.3416 28.8945
361 9 11 HN 0.3 98.2611 56.1433 32.0204
362 9 12 HN_T1 0.3 92.6144 59.8942 33.3
363 9 13 NCO -0.5 98.6376 56.9786 31.5953
364 9 14 NCO_T -0.5 92.4184 60.0319 32.3188
365 9 15 OC -0.5 100.376 57.8081 30.5385
366 9 16 OC_T -0.5 103.828 51.2205 29.7284
367 9 17 Q 0 104.013 52.2903 27.6852
368 9 18 X 0 91.5219 59.7839 31.9252
369 9 19 Z 0 104.732 52.8621 27.462
370 10 1 C2H -0.12 -1.54703 25.1404 -61.6386
371 10 2 C2H_T -0.12 -2.09526 24.7456 -63.0882
372 10 1 C2H -0.12 -1.93335 24.0479 -60.5845
373 10 2 C2H_T -0.12 -1.18447 25.3886 -64.1149
374 10 3 CTN 0.08 -1.44031 24.339 -59.1545
375 10 4 CTN_T 0.08 -1.7009 25.2843 -65.558
376 10 1 C2H -0.12 -0.328386 20.4091 -56.087
377 10 1 C2H -0.12 0.361239 20.9995 -54.787
378 10 1 C2H -0.12 -1.39313 21.2378 -56.7802
379 10 1 C2H -0.12 1.86065 20.6559 -54.4919
380 10 5 CO 0.5 -0.889367 22.5869 -57.4784
381 10 6 CO_T 0.5 2.86449 21.3592 -55.5005
382 10 7 H 0.06 -0.463172 25.1169 -61.7517
383 10 7 H 0.06 -1.78481 26.1711 -61.3755
384 10 8 H_T 0.06 -3.05687 25.2489 -63.189
385 10 8 H_T 0.06 -2.094 23.656 -63.1144
386 10 7 H 0.06 -1.38277 23.1611 -60.8985
387 10 7 H 0.06 -2.99696 23.849 -60.7161
388 10 8 H_T 0.06 -0.233348 24.8689 -63.9997
389 10 8 H_T 0.06 -0.911117 26.4185 -63.8853
390 10 9 H2CN 0.06 -0.444733 24.7826 -59.1445
391 10 9 H2CN 0.06 -1.97224 25.2076 -58.7664
392 10 10 H2CN_T 0.06 -1.92002 24.2449 -65.8024
393 10 10 H2CN_T 0.06 -2.59219 25.9037 -65.6579
394 10 7 H 0.06 -0.728894 19.4314 -55.8191
395 10 7 H 0.06 0.435884 20.2 -56.8355
396 10 7 H 0.06 0.283314 22.0867 -54.7741
397 10 7 H 0.06 -0.15562 20.6773 -53.8831
398 10 7 H 0.06 -1.99266 20.5671 -57.3957
399 10 7 H 0.06 -2.08765 21.6211 -56.0327
400 10 7 H 0.06 1.83132 19.5844 -54.2937
401 10 7 H 0.06 2.15681 21.0625 -53.5249
402 10 11 HN 0.3 -2.7021 22.8374 -58.2078
403 10 12 HN_T1 0.3 0.0805269 25.2835 -66.5577
404 10 13 NCO -0.5 -1.76636 23.2151 -58.25
405 10 14 NCO_T -0.5 -0.745748 25.8643 -66.5536
406 10 15 OC -0.5 0.258074 22.9018 -57.349
407 10 16 OC_T -0.5 3.96038 21.6753 -54.9934
408 10 17 Q 0 2.78531 21.0219 -56.9001
409 10 18 X 0 -0.515457 26.8406 -66.4358
410 10 19 Z 0 3.41805 20.3561 -57.1224
411 11 1 C2H -0.12 70.4959 53.4717 16.013
412 11 2 C2H_T -0.12 69.6048 54.6349 15.7129
413 11 1 C2H -0.12 71.4069 53.6957 17.1662
414 11 2 C2H_T -0.12 69.1861 54.6254 14.2528
415 11 3 CTN 0.08 72.5345 54.777 16.9066
416 11 4 CTN_T 0.08 68.8332 56.0811 13.7669
417 11 1 C2H -0.12 76.6833 55.3978 14.0342
418 11 1 C2H -0.12 77.8635 55.1203 15.0768
419 11 1 C2H -0.12 75.3547 54.5719 14.352
420 11 1 C2H -0.12 78.6657 53.8086 14.8781
421 11 5 CO 0.5 74.534 55.1124 15.598
422 11 6 CO_T 0.5 80.1551 53.91 15.2644
423 11 7 H 0.06 69.8176 52.6269 16.1331
424 11 7 H 0.06 71.1977 53.2328 15.2139
425 11 8 H_T 0.06 70.1794 55.5497 15.8579
426 11 8 H_T 0.06 68.7476 54.6438 16.386
427 11 7 H 0.06 71.9197 52.7603 17.3905
428 11 7 H 0.06 70.8547 54.1025 18.0134
429 11 8 H_T 0.06 68.3722 53.9017 14.2109
430 11 8 H_T 0.06 69.9741 54.271 13.5884
431 11 9 H2CN 0.06 72.1241 55.7868 16.8993
432 11 9 H2CN 0.06 73.1375 54.691 17.8105
433 11 10 H2CN_T 0.06 68.2801 56.6604 14.5062
434 11 10 H2CN_T 0.06 69.6931 56.748 13.7035
435 11 7 H 0.06 76.9517 55.0805 13.0266
436 11 7 H 0.06 76.4156 56.4478 13.9166
437 11 7 H 0.06 78.5405 55.9343 14.8176
438 11 7 H 0.06 77.4111 55.2329 16.062
439 11 7 H 0.06 74.7544 54.6916 13.4502
440 11 7 H 0.06 75.5175 53.5006 14.2348
441 11 7 H 0.06 78.6588 53.5133 13.8289
442 11 7 H 0.06 78.2515 52.995 15.4734
443 11 11 HN 0.3 73.2055 53.7258 15.1652
444 11 12 HN_T1 0.3 68.7945 56.6468 11.7635
445 11 13 NCO -0.5 73.3996 54.5098 15.7716
446 11 14 NCO_T -0.5 68.2993 56.0377 12.399
447 11 15 OC -0.5 74.8818 56.1098 16.195
448 11 16 OC_T -0.5 80.6749 52.7842 15.2586
449 11 17 Q 0 80.9164 54.95 14.6098
450 11 18 X 0 67.3015 55.8809 12.3941
451 11 19 Z 0 80.888 55.8321 14.9474
452 12 1 C2H -0.12 6.82507 61.76 28.3337
453 12 2 C2H_T -0.12 5.61632 61.5837 27.3978
454 12 1 C2H -0.12 8.09133 61.0047 27.8061
455 12 2 C2H_T -0.12 5.65299 62.1786 25.9942
456 12 3 CTN 0.08 9.31529 61.8207 28.1089
457 12 4 CTN_T 0.08 4.3161 61.7815 25.2233
458 12 1 C2H -0.12 13.6596 59.3438 26.7466
459 12 1 C2H -0.12 14.9898 59.9686 27.2765
460 12 1 C2H -0.12 12.5329 59.5806 27.7198
461 12 1 C2H -0.12 15.8658 60.4865 26.149
462 12 5 CO 0.5 11.4234 60.6541 27.3449
463 12 6 CO_T 0.5 15.5609 61.7784 25.3561
464 12 7 H 0.06 7.05269 62.8242 28.272
465 12 7 H 0.06 6.68987 61.5953 29.4026
466 12 8 H_T 0.06 4.86586 62.0695 28.0214
467 12 8 H_T 0.06 5.20915 60.5811 27.2677
468 12 7 H 0.06 8.02527 60.9083 26.7224
469 12 7 H 0.06 8.16241 60.006 28.2371
470 12 8 H_T 0.06 6.54416 61.7961 25.4966
471 12 8 H_T 0.06 5.75022 63.2642 26.0087
472 12 9 H2CN 0.06 9.35543 62.5218 27.2752
473 12 9 H2CN 0.06 9.1428 62.4318 28.9948
474 12 10 H2CN_T 0.06 3.45914 61.6655 25.8869
475 12 10 H2CN_T 0.06 4.08292 62.5381 24.4742
476 12 7 H 0.06 13.9119 58.3583 26.3552
477 12 7 H 0.06 13.3713 59.8672 25.835
478 12 7 H 0.06 14.6379 60.8678 27.7822
479 12 7 H 0.06 15.4843 59.3084 27.989
480 12 7 H 0.06 12.2228 58.6155 28.1205
481 12 7 H 0.06 12.851 60.0544 28.6484
482 12 7 H 0.06 15.9707 59.6582 25.4482
483 12 7 H 0.06 16.8319 60.6388 26.6302
484 12 11 HN 0.3 10.4394 60.2799 29.0858
485 12 12 HN_T1 0.3 5.52202 60.3605 24.2658
486 12 13 NCO -0.5 10.478 60.9181 28.3039
487 12 14 NCO_T -0.5 4.59095 60.4063 24.6545
488 12 15 OC -0.5 11.4424 61.3028 26.3338
489 12 16 OC_T -0.5 16.4467 62.1021 24.5651
490 12 17 Q 0 14.345 62.3484 25.3068
491 12 18 X 0 4.21537 59.491 24.8578
492 12 19 Z 0 14.4293 63.0165 24.6438
493 13 1 C2H -0.12 13.9762 145.342 17.1833
494 13 2 C2H_T -0.12 14.2654 144.773 15.7551
495 13 1 C2H -0.12 14.5722 144.463 18.2627
496 13 2 C2H_T -0.12 13.7469 145.585 14.554
497 13 3 CTN 0.08 13.7988 143.11 18.2284
498 13 4 CTN_T 0.08 13.9437 144.888 13.1521
499 13 1 C2H -0.12 15.2822 138.843 20.6762
500 13 1 C2H -0.12 15.8214 138.209 22.0765
501 13 1 C2H -0.12 14.4738 140.219 20.8169
502 13 1 C2H -0.12 16.9294 139.064 22.8048
503 13 5 CO 0.5 14.1757 140.966 19.4395
504 13 6 CO_T 0.5 18.3252 139.05 22.155
505 13 7 H 0.06 14.4769 146.301 17.3168
506 13 7 H 0.06 12.9222 145.587 17.3131
507 13 8 H_T 0.06 13.7615 143.814 15.6334
508 13 8 H_T 0.06 15.2884 144.402 15.6919
509 13 7 H 0.06 14.6423 144.867 19.2728
510 13 7 H 0.06 15.6474 144.285 18.2773
511 13 8 H_T 0.06 14.098 146.616 14.4988
512 13 8 H_T 0.06 12.6693 145.579 14.7174
513 13 9 H2CN 0.06 12.7269 143.293 18.1536
514 13 9 H2CN 0.06 14.226 142.555 17.3932
515 13 10 H2CN_T 0.06 13.1414 145.188 12.4783
516 13 10 H2CN_T 0.06 14.8732 145.29 12.7488
517 13 7 H 0.06 14.6439 138.135 20.1478
518 13 7 H 0.06 16.0949 139.024 19.9728
519 13 7 H 0.06 14.9829 138.06 22.7568
520 13 7 H 0.06 16.117 137.194 21.809
521 13 7 H 0.06 13.5521 139.95 21.3326
522 13 7 H 0.06 15.1088 140.899 21.3847
523 13 7 H 0.06 17.1623 138.74 23.8193
524 13 7 H 0.06 16.5134 140.03 23.0889
525 13 11 HN 0.3 14.3404 142.86 20.2125
526 13 12 HN_T1 0.3 14.9354 143.192 13.4195
527 13 13 NCO -0.5 14.0382 142.315 19.4179
528 13 14 NCO_T -0.5 14.0502 143.401 12.9802
529 13 15 OC -0.5 13.9879 140.244 18.441
530 13 16 OC_T -0.5 18.9021 137.962 22.0482
531 13 17 Q 0 18.7264 140.037 21.4184
532 13 18 X 0 13.2353 142.827 13.1427
533 13 19 Z 0 18.844 140.89 21.8073
534 14 1 C2H -0.12 75.6556 28.3894 17.2836
535 14 2 C2H_T -0.12 74.1589 28.1736 17.6645
536 14 1 C2H -0.12 75.9381 28.5952 15.8258
537 14 2 C2H_T -0.12 74.0634 28.4217 19.1255
538 14 3 CTN 0.08 77.218 29.27 15.6709
539 14 4 CTN_T 0.08 72.6119 28.2028 19.6533
540 14 1 C2H -0.12 77.5387 32.1607 11.4187
541 14 1 C2H -0.12 76.2318 32.3705 10.7069
542 14 1 C2H -0.12 77.7626 30.8729 12.1759
543 14 1 C2H -0.12 76.0382 31.5291 9.40331
544 14 5 CO 0.5 77.4866 30.9153 13.669
545 14 6 CO_T 0.5 74.5364 31.3371 8.93021
546 14 7 H 0.06 76.0315 29.2449 17.8447
547 14 7 H 0.06 76.1587 27.5116 17.6891
548 14 8 H_T 0.06 73.9796 27.1549 17.3207
549 14 8 H_T 0.06 73.5471 28.9442 17.1954
550 14 7 H 0.06 75.1681 29.1421 15.2817
551 14 7 H 0.06 75.8437 27.6782 15.2442
552 14 8 H_T 0.06 74.4836 29.346 19.5221
553 14 8 H_T 0.06 74.6476 27.6541 19.6331
554 14 9 H2CN 0.06 77.3171 30.0696 16.4051
555 14 9 H2CN 0.06 78.0771 28.5991 15.6718
556 14 10 H2CN_T 0.06 72.2321 27.2005 19.4553
557 14 10 H2CN_T 0.06 72.5369 28.4262 20.7175
558 14 7 H 0.06 77.7949 33.0089 12.0536
559 14 7 H 0.06 78.2566 32.0878 10.6018
560 14 7 H 0.06 75.406 32.201 11.3979
561 14 7 H 0.06 76.0664 33.4341 10.5353
562 14 7 H 0.06 77.0903 30.1158 11.7723
563 14 7 H 0.06 78.7988 30.5624 12.0419
564 14 7 H 0.06 76.1682 30.5002 9.73888
565 14 7 H 0.06 76.7343 31.7227 8.58713
566 14 11 HN 0.3 77.8022 28.9031 13.7399
567 14 12 HN_T1 0.3 71.9719 30.1518 19.4253
568 14 13 NCO -0.5 77.4106 29.6981 14.2243
569 14 14 NCO_T -0.5 71.7527 29.2301 19.0755
570 14 15 OC -0.5 77.3072 32.0113 14.2631
571 14 16 OC_T -0.5 73.7668 31.1416 9.86955
572 14 17 Q 0 74.4277 30.6416 7.77466
573 14 18 X 0 70.8589 28.9842 18.6745
574 14 19 Z 0 73.7281 30.0163 7.88694
575 15 1 C2H -0.12 74.8404 42.1046 14.739
576 15 2 C2H_T -0.12 74.41 41.0458 15.6678
577 15 1 C2H -0.12 73.9387 43.3116 14.8077
578 15 2 C2H_T -0.12 75.1906 39.704 15.4848
579 15 3 CTN 0.08 74.2667 44.2524 13.6006
580 15 4 CTN_T 0.08 74.6018 38.3962 16.0825
581 15 1 C2H -0.12 72.057 48.7938 14.1289
582 15 1 C2H -0.12 72.5152 49.5746 15.3703
583 15 1 C2H -0.12 72.0247 47.2375 14.3107
584 15 1 C2H -0.12 73.5753 50.6118 15.0517
585 15 5 CO 0.5 73.3889 46.4936 14.0836
586 15 6 CO_T 0.5 74.904 50.1839 14.291
587 15 7 H 0.06 75.8191 42.3269 15.1644
588 15 7 H 0.06 74.987 41.6063 13.7808
589 15 8 H_T 0.06 73.3321 40.9223 15.5628
590 15 8 H_T 0.06 74.5452 41.2436 16.7311
591 15 7 H 0.06 74.0612 43.7518 15.7973
592 15 7 H 0.06 72.9328 42.9012 14.7187
593 15 8 H_T 0.06 76.2484 39.7397 15.7453
594 15 8 H_T 0.06 75.2912 39.4241 14.4361
595 15 9 H2CN 0.06 75.2875 44.6328 13.6388
596 15 9 H2CN 0.06 74.141 43.6125 12.7272
597 15 10 H2CN_T 0.06 73.6152 38.2172 15.655
598 15 10 H2CN_T 0.06 75.1187 37.4648 15.8517
599 15 7 H 0.06 72.7794 49.0254 13.3463
600 15 7 H 0.06 71.0805 49.1249 13.7753
601 15 7 H 0.06 71.7562 50.1721 15.8752
602 15 7 H 0.06 72.8252 48.8765 16.148
603 15 7 H 0.06 71.5625 47.1408 15.2931
604 15 7 H 0.06 71.3073 46.8495 13.5876
605 15 7 H 0.06 73.9454 51.1787 15.906
606 15 7 H 0.06 73.2442 51.3725 14.3447
607 15 11 HN 0.3 72.5606 45.091 12.8529
608 15 12 HN_T1 0.3 73.7042 39.0937 17.8547
609 15 13 NCO -0.5 73.2947 45.2684 13.5235
610 15 14 NCO_T -0.5 74.5929 38.701 17.579
611 15 15 OC -0.5 74.35 46.8012 14.7609
612 15 16 OC_T -0.5 75.5752 51.1308 13.7846
613 15 17 Q 0 75.6682 49.2687 14.9225
614 15 18 X 0 75.4438 38.8708 18.0959
615 15 19 Z 0 75.1432 48.7022 15.4669
616 16 1 C2H -0.12 73.7106 34.4414 97.1222
617 16 2 C2H_T -0.12 74.784 34.5429 96.0489
618 16 1 C2H -0.12 74.1449 33.8312 98.491
619 16 2 C2H_T -0.12 74.1553 34.8857 94.6631
620 16 3 CTN 0.08 73.3513 34.4709 99.6588
621 16 4 CTN_T 0.08 75.3045 35.0822 93.6863
622 16 1 C2H -0.12 73.3318 31.4442 103.477
623 16 1 C2H -0.12 73.8159 31.2747 104.909
624 16 1 C2H -0.12 73.8375 32.6702 102.908
625 16 1 C2H -0.12 73.8476 29.7956 105.423
626 16 5 CO 0.5 73.4722 32.7883 101.45
627 16 6 CO_T 0.5 74.46 29.8511 106.825
628 16 7 H 0.06 73.3759 35.4711 97.2479
629 16 7 H 0.06 72.8867 33.8696 96.6952
630 16 8 H_T 0.06 75.4187 33.6649 96.1687
631 16 8 H_T 0.06 75.4256 35.4212 96.1203
632 16 7 H 0.06 75.2332 33.8763 98.5338
633 16 7 H 0.06 73.9956 32.7553 98.5827
634 16 8 H_T 0.06 73.5854 35.8148 94.6651
635 16 8 H_T 0.06 73.492 34.0956 94.311
636 16 9 H2CN 0.06 73.3852 35.5189 99.9565
637 16 9 H2CN 0.06 72.2915 34.2392 99.5529
638 16 10 H2CN_T 0.06 75.9019 35.9165 94.0541
639 16 10 H2CN_T 0.06 75.7993 34.111 93.6851
640 16 7 H 0.06 72.2445 31.4495 103.554
641 16 7 H 0.06 73.7196 30.6186 102.881
642 16 7 H 0.06 74.8797 31.5115 104.891
643 16 7 H 0.06 73.2809 31.7789 105.714
644 16 7 H 0.06 73.2766 33.3955 103.497
645 16 7 H 0.06 74.8981 32.904 103
646 16 7 H 0.06 74.5152 29.1903 104.809
647 16 7 H 0.06 72.8608 29.3332 105.443
648 16 11 HN 0.3 74.4482 34.453 101.57
649 16 12 HN_T1 0.3 74.7677 34.4647 91.7825
650 16 13 NCO -0.5 73.8159 33.9909 100.932
651 16 14 NCO_T -0.5 74.7711 35.3121 92.332
652 16 15 OC -0.5 72.8173 31.8832 100.851
653 16 16 OC_T -0.5 75.7226 29.5614 106.858
654 16 17 Q 0 73.6711 29.744 107.933
655 16 18 X 0 74.3097 36.1328 91.9665
656 16 19 Z 0 73.9952 30.3801 108.552
657 17 1 C2H -0.12 9.43447 31.2086 26.9765
658 17 2 C2H_T -0.12 9.40623 32.6954 26.7038
659 17 1 C2H -0.12 8.76311 30.7348 28.2504
660 17 2 C2H_T -0.12 8.0841 33.3837 26.2538
661 17 3 CTN 0.08 9.76234 30.9942 29.429
662 17 4 CTN_T 0.08 7.54515 33.2048 24.7968
663 17 1 C2H -0.12 9.91512 30.1206 34.4724
664 17 1 C2H -0.12 11.0125 29.3165 35.0284
665 17 1 C2H -0.12 9.34262 29.7369 33.0512
666 17 1 C2H -0.12 11.5273 29.6339 36.4553
667 17 5 CO 0.5 9.61333 30.7378 31.9216
668 17 6 CO_T 0.5 11.8162 31.2353 36.7508
669 17 7 H 0.06 8.79188 30.714 26.2481
670 17 7 H 0.06 10.4226 30.7489 26.9957
671 17 8 H_T 0.06 10.2394 33.0001 26.0704
672 17 8 H_T 0.06 9.70384 33.1877 27.6297
673 17 7 H 0.06 8.45199 29.693 28.1731
674 17 7 H 0.06 7.79401 31.1803 28.4751
675 17 8 H_T 0.06 8.07869 34.4422 26.5136
676 17 8 H_T 0.06 7.23891 33.0004 26.8255
677 17 9 H2CN 0.06 10.7715 30.6637 29.1829
678 17 9 H2CN 0.06 9.97642 32.0212 29.7251
679 17 10 H2CN_T 0.06 6.71883 33.8997 24.6473
680 17 10 H2CN_T 0.06 8.29606 33.6829 24.1678
681 17 7 H 0.06 10.1859 31.1759 34.4389
682 17 7 H 0.06 9.11324 30.0362 35.2059
683 17 7 H 0.06 10.8261 28.2474 35.1306
684 17 7 H 0.06 11.8908 29.5233 34.4168
685 17 7 H 0.06 9.89847 28.8657 32.7046
686 17 7 H 0.06 8.25396 29.7179 33.0006
687 17 7 H 0.06 12.4291 29.0531 36.6489
688 17 7 H 0.06 10.8818 29.2679 37.2537
689 17 11 HN 0.3 8.69104 29.5339 30.6164
690 17 12 HN_T1 0.3 8.00381 31.6454 23.6792
691 17 13 NCO -0.5 9.33116 30.3141 30.6564
692 17 14 NCO_T -0.5 7.2669 31.877 24.3299
693 17 15 OC -0.5 10.0201 31.8629 32.1536
694 17 16 OC_T -0.5 12.5655 31.406 37.7378
695 17 17 Q 0 11.0998 32.3024 36.2436
696 17 18 X 0 6.40474 31.4303 24.6078
697 17 19 Z 0 11.1328 32.3661 35.3014
698 18 1 C2H -0.12 -13.8349 32.5299 88.5425
699 18 2 C2H_T -0.12 -12.9158 33.2398 89.4442
700 18 1 C2H -0.12 -14.8699 31.6952 89.3264
701 18 2 C2H_T -0.12 -12.0346 34.1122 88.5546
702 18 3 CTN 0.08 -15.885 31.0456 88.3359
703 18 4 CTN_T 0.08 -10.8229 34.8396 89.2186
704 18 1 C2H -0.12 -12.839 29.347 84.9725
705 18 1 C2H -0.12 -11.6738 29.7305 85.94
706 18 1 C2H -0.12 -14.2413 28.907 85.5656
707 18 1 C2H -0.12 -10.3522 30.1054 85.2471
708 18 5 CO 0.5 -14.8597 30.1142 86.2471
709 18 6 CO_T 0.5 -10.4023 31.5695 84.5687
710 18 7 H 0.06 -14.3148 33.1761 87.8075
711 18 7 H 0.06 -13.2075 31.9105 87.9015
712 18 8 H_T 0.06 -12.422 32.3839 89.9043
713 18 8 H_T 0.06 -13.4844 33.7811 90.2003
714 18 7 H 0.06 -15.4629 32.288 90.0228
715 18 7 H 0.06 -14.3478 30.9815 89.9638
716 18 8 H_T 0.06 -12.6654 34.8843 88.1142
717 18 8 H_T 0.06 -11.637 33.4605 87.7766
718 18 9 H2CN 0.06 -16.5789 30.5745 89.032
719 18 9 H2CN 0.06 -16.3817 31.8422 87.782
720 18 10 H2CN_T 0.06 -10.2665 35.39 88.46
721 18 10 H2CN_T 0.06 -11.3 35.5745 89.8671